# vtk DataFile Version 2.0
Unstructured Grid
ASCII
DATASET UNSTRUCTURED_GRID

POINTS 882 double
0.000 0.000 0.000
5.000 0.000 0.000
10.000 0.000 0.000
15.000 0.000 0.000
20.000 0.000 0.000
25.000 0.000 0.000
30.000 0.000 0.000
35.000 0.000 0.000
40.000 0.000 0.000
45.000 0.000 0.000
50.000 0.000 0.000
55.000 0.000 0.000
60.000 0.000 0.000
65.000 0.000 0.000
70.000 0.000 0.000
75.000 0.000 0.000
80.000 0.000 0.000
85.000 0.000 0.000
90.000 0.000 0.000
95.000 0.000 0.000
100.000 0.000 0.000
0.000 5.000 0.000
5.000 5.000 0.000
10.000 5.000 0.000
15.000 5.000 0.000
20.000 5.000 0.000
25.000 5.000 0.000
30.000 5.000 0.000
35.000 5.000 0.000
40.000 5.000 0.000
45.000 5.000 0.000
50.000 5.000 0.000
55.000 5.000 0.000
60.000 5.000 0.000
65.000 5.000 0.000
70.000 5.000 0.000
75.000 5.000 0.000
80.000 5.000 0.000
85.000 5.000 0.000
90.000 5.000 0.000
95.000 5.000 0.000
100.000 5.000 0.000
0.000 10.000 0.000
5.000 10.000 0.000
10.000 10.000 0.000
15.000 10.000 0.000
20.000 10.000 0.000
25.000 10.000 0.000
30.000 10.000 0.000
35.000 10.000 0.000
40.000 10.000 0.000
45.000 10.000 0.000
50.000 10.000 0.000
55.000 10.000 0.000
60.000 10.000 0.000
65.000 10.000 0.000
70.000 10.000 0.000
75.000 10.000 0.000
80.000 10.000 0.000
85.000 10.000 0.000
90.000 10.000 0.000
95.000 10.000 0.000
100.000 10.000 0.000
0.000 15.000 0.000
5.000 15.000 0.000
10.000 15.000 0.000
15.000 15.000 0.000
20.000 15.000 0.000
25.000 15.000 0.000
30.000 15.000 0.000
35.000 15.000 0.000
40.000 15.000 0.000
45.000 15.000 0.000
50.000 15.000 0.000
55.000 15.000 0.000
60.000 15.000 0.000
65.000 15.000 0.000
70.000 15.000 0.000
75.000 15.000 0.000
80.000 15.000 0.000
85.000 15.000 0.000
90.000 15.000 0.000
95.000 15.000 0.000
100.000 15.000 0.000
0.000 20.000 0.000
5.000 20.000 0.000
10.000 20.000 0.000
15.000 20.000 0.000
20.000 20.000 0.000
25.000 20.000 0.000
30.000 20.000 0.000
35.000 20.000 0.000
40.000 20.000 0.000
45.000 20.000 0.000
50.000 20.000 0.000
55.000 20.000 0.000
60.000 20.000 0.000
65.000 20.000 0.000
70.000 20.000 0.000
75.000 20.000 0.000
80.000 20.000 0.000
85.000 20.000 0.000
90.000 20.000 0.000
95.000 20.000 0.000
100.000 20.000 0.000
0.000 25.000 0.000
5.000 25.000 0.000
10.000 25.000 0.000
15.000 25.000 0.000
20.000 25.000 0.000
25.000 25.000 0.000
30.000 25.000 0.000
35.000 25.000 0.000
40.000 25.000 0.000
45.000 25.000 0.000
50.000 25.000 0.000
55.000 25.000 0.000
60.000 25.000 0.000
65.000 25.000 0.000
70.000 25.000 0.000
75.000 25.000 0.000
80.000 25.000 0.000
85.000 25.000 0.000
90.000 25.000 0.000
95.000 25.000 0.000
100.000 25.000 0.000
0.000 30.000 0.000
5.000 30.000 0.000
10.000 30.000 0.000
15.000 30.000 0.000
20.000 30.000 0.000
25.000 30.000 0.000
30.000 30.000 0.000
35.000 30.000 0.000
40.000 30.000 0.000
45.000 30.000 0.000
50.000 30.000 0.000
55.000 30.000 0.000
60.000 30.000 0.000
65.000 30.000 0.000
70.000 30.000 0.000
75.000 30.000 0.000
80.000 30.000 0.000
85.000 30.000 0.000
90.000 30.000 0.000
95.000 30.000 0.000
100.000 30.000 0.000
0.000 35.000 0.000
5.000 35.000 0.000
10.000 35.000 0.000
15.000 35.000 0.000
20.000 35.000 0.000
25.000 35.000 0.000
30.000 35.000 0.000
35.000 35.000 0.000
40.000 35.000 0.000
45.000 35.000 0.000
50.000 35.000 0.000
55.000 35.000 0.000
60.000 35.000 0.000
65.000 35.000 0.000
70.000 35.000 0.000
75.000 35.000 0.000
80.000 35.000 0.000
85.000 35.000 0.000
90.000 35.000 0.000
95.000 35.000 0.000
100.000 35.000 0.000
0.000 40.000 0.000
5.000 40.000 0.000
10.000 40.000 0.000
15.000 40.000 0.000
20.000 40.000 0.000
25.000 40.000 0.000
30.000 40.000 0.000
35.000 40.000 0.000
40.000 40.000 0.000
45.000 40.000 0.000
50.000 40.000 0.000
55.000 40.000 0.000
60.000 40.000 0.000
65.000 40.000 0.000
70.000 40.000 0.000
75.000 40.000 0.000
80.000 40.000 0.000
85.000 40.000 0.000
90.000 40.000 0.000
95.000 40.000 0.000
100.000 40.000 0.000
0.000 45.000 0.000
5.000 45.000 0.000
10.000 45.000 0.000
15.000 45.000 0.000
20.000 45.000 0.000
25.000 45.000 0.000
30.000 45.000 0.000
35.000 45.000 0.000
40.000 45.000 0.000
45.000 45.000 0.000
50.000 45.000 0.000
55.000 45.000 0.000
60.000 45.000 0.000
65.000 45.000 0.000
70.000 45.000 0.000
75.000 45.000 0.000
80.000 45.000 0.000
85.000 45.000 0.000
90.000 45.000 0.000
95.000 45.000 0.000
100.000 45.000 0.000
0.000 50.000 0.000
5.000 50.000 0.000
10.000 50.000 0.000
15.000 50.000 0.000
20.000 50.000 0.000
25.000 50.000 0.000
30.000 50.000 0.000
35.000 50.000 0.000
40.000 50.000 0.000
45.000 50.000 0.000
50.000 50.000 0.000
55.000 50.000 0.000
60.000 50.000 0.000
65.000 50.000 0.000
70.000 50.000 0.000
75.000 50.000 0.000
80.000 50.000 0.000
85.000 50.000 0.000
90.000 50.000 0.000
95.000 50.000 0.000
100.000 50.000 0.000
0.000 55.000 0.000
5.000 55.000 0.000
10.000 55.000 0.000
15.000 55.000 0.000
20.000 55.000 0.000
25.000 55.000 0.000
30.000 55.000 0.000
35.000 55.000 0.000
40.000 55.000 0.000
45.000 55.000 0.000
50.000 55.000 0.000
55.000 55.000 0.000
60.000 55.000 0.000
65.000 55.000 0.000
70.000 55.000 0.000
75.000 55.000 0.000
80.000 55.000 0.000
85.000 55.000 0.000
90.000 55.000 0.000
95.000 55.000 0.000
100.000 55.000 0.000
0.000 60.000 0.000
5.000 60.000 0.000
10.000 60.000 0.000
15.000 60.000 0.000
20.000 60.000 0.000
25.000 60.000 0.000
30.000 60.000 0.000
35.000 60.000 0.000
40.000 60.000 0.000
45.000 60.000 0.000
50.000 60.000 0.000
55.000 60.000 0.000
60.000 60.000 0.000
65.000 60.000 0.000
70.000 60.000 0.000
75.000 60.000 0.000
80.000 60.000 0.000
85.000 60.000 0.000
90.000 60.000 0.000
95.000 60.000 0.000
100.000 60.000 0.000
0.000 65.000 0.000
5.000 65.000 0.000
10.000 65.000 0.000
15.000 65.000 0.000
20.000 65.000 0.000
25.000 65.000 0.000
30.000 65.000 0.000
35.000 65.000 0.000
40.000 65.000 0.000
45.000 65.000 0.000
50.000 65.000 0.000
55.000 65.000 0.000
60.000 65.000 0.000
65.000 65.000 0.000
70.000 65.000 0.000
75.000 65.000 0.000
80.000 65.000 0.000
85.000 65.000 0.000
90.000 65.000 0.000
95.000 65.000 0.000
100.000 65.000 0.000
0.000 70.000 0.000
5.000 70.000 0.000
10.000 70.000 0.000
15.000 70.000 0.000
20.000 70.000 0.000
25.000 70.000 0.000
30.000 70.000 0.000
35.000 70.000 0.000
40.000 70.000 0.000
45.000 70.000 0.000
50.000 70.000 0.000
55.000 70.000 0.000
60.000 70.000 0.000
65.000 70.000 0.000
70.000 70.000 0.000
75.000 70.000 0.000
80.000 70.000 0.000
85.000 70.000 0.000
90.000 70.000 0.000
95.000 70.000 0.000
100.000 70.000 0.000
0.000 75.000 0.000
5.000 75.000 0.000
10.000 75.000 0.000
15.000 75.000 0.000
20.000 75.000 0.000
25.000 75.000 0.000
30.000 75.000 0.000
35.000 75.000 0.000
40.000 75.000 0.000
45.000 75.000 0.000
50.000 75.000 0.000
55.000 75.000 0.000
60.000 75.000 0.000
65.000 75.000 0.000
70.000 75.000 0.000
75.000 75.000 0.000
80.000 75.000 0.000
85.000 75.000 0.000
90.000 75.000 0.000
95.000 75.000 0.000
100.000 75.000 0.000
0.000 80.000 0.000
5.000 80.000 0.000
10.000 80.000 0.000
15.000 80.000 0.000
20.000 80.000 0.000
25.000 80.000 0.000
30.000 80.000 0.000
35.000 80.000 0.000
40.000 80.000 0.000
45.000 80.000 0.000
50.000 80.000 0.000
55.000 80.000 0.000
60.000 80.000 0.000
65.000 80.000 0.000
70.000 80.000 0.000
75.000 80.000 0.000
80.000 80.000 0.000
85.000 80.000 0.000
90.000 80.000 0.000
95.000 80.000 0.000
100.000 80.000 0.000
0.000 85.000 0.000
5.000 85.000 0.000
10.000 85.000 0.000
15.000 85.000 0.000
20.000 85.000 0.000
25.000 85.000 0.000
30.000 85.000 0.000
35.000 85.000 0.000
40.000 85.000 0.000
45.000 85.000 0.000
50.000 85.000 0.000
55.000 85.000 0.000
60.000 85.000 0.000
65.000 85.000 0.000
70.000 85.000 0.000
75.000 85.000 0.000
80.000 85.000 0.000
85.000 85.000 0.000
90.000 85.000 0.000
95.000 85.000 0.000
100.000 85.000 0.000
0.000 90.000 0.000
5.000 90.000 0.000
10.000 90.000 0.000
15.000 90.000 0.000
20.000 90.000 0.000
25.000 90.000 0.000
30.000 90.000 0.000
35.000 90.000 0.000
40.000 90.000 0.000
45.000 90.000 0.000
50.000 90.000 0.000
55.000 90.000 0.000
60.000 90.000 0.000
65.000 90.000 0.000
70.000 90.000 0.000
75.000 90.000 0.000
80.000 90.000 0.000
85.000 90.000 0.000
90.000 90.000 0.000
95.000 90.000 0.000
100.000 90.000 0.000
0.000 95.000 0.000
5.000 95.000 0.000
10.000 95.000 0.000
15.000 95.000 0.000
20.000 95.000 0.000
25.000 95.000 0.000
30.000 95.000 0.000
35.000 95.000 0.000
40.000 95.000 0.000
45.000 95.000 0.000
50.000 95.000 0.000
55.000 95.000 0.000
60.000 95.000 0.000
65.000 95.000 0.000
70.000 95.000 0.000
75.000 95.000 0.000
80.000 95.000 0.000
85.000 95.000 0.000
90.000 95.000 0.000
95.000 95.000 0.000
100.000 95.000 0.000
0.000 100.000 0.000
5.000 100.000 0.000
10.000 100.000 0.000
15.000 100.000 0.000
20.000 100.000 0.000
25.000 100.000 0.000
30.000 100.000 0.000
35.000 100.000 0.000
40.000 100.000 0.000
45.000 100.000 0.000
50.000 100.000 0.000
55.000 100.000 0.000
60.000 100.000 0.000
65.000 100.000 0.000
70.000 100.000 0.000
75.000 100.000 0.000
80.000 100.000 0.000
85.000 100.000 0.000
90.000 100.000 0.000
95.000 100.000 0.000
100.000 100.000 0.000
0.000 0.000 5.000
5.000 0.000 5.000
10.000 0.000 5.000
15.000 0.000 5.000
20.000 0.000 5.000
25.000 0.000 5.000
30.000 0.000 5.000
35.000 0.000 5.000
40.000 0.000 5.000
45.000 0.000 5.000
50.000 0.000 5.000
55.000 0.000 5.000
60.000 0.000 5.000
65.000 0.000 5.000
70.000 0.000 5.000
75.000 0.000 5.000
80.000 0.000 5.000
85.000 0.000 5.000
90.000 0.000 5.000
95.000 0.000 5.000
100.000 0.000 5.000
0.000 5.000 5.000
5.000 5.000 5.000
10.000 5.000 5.000
15.000 5.000 5.000
20.000 5.000 5.000
25.000 5.000 5.000
30.000 5.000 5.000
35.000 5.000 5.000
40.000 5.000 5.000
45.000 5.000 5.000
50.000 5.000 5.000
55.000 5.000 5.000
60.000 5.000 5.000
65.000 5.000 5.000
70.000 5.000 5.000
75.000 5.000 5.000
80.000 5.000 5.000
85.000 5.000 5.000
90.000 5.000 5.000
95.000 5.000 5.000
100.000 5.000 5.000
0.000 10.000 5.000
5.000 10.000 5.000
10.000 10.000 5.000
15.000 10.000 5.000
20.000 10.000 5.000
25.000 10.000 5.000
30.000 10.000 5.000
35.000 10.000 5.000
40.000 10.000 5.000
45.000 10.000 5.000
50.000 10.000 5.000
55.000 10.000 5.000
60.000 10.000 5.000
65.000 10.000 5.000
70.000 10.000 5.000
75.000 10.000 5.000
[...]
CELL_DATA 400
SCALARS Permeability_mD double
LOOKUP_TABLE default
2.317
1.952
7.138
2.006
2.755
2.101
4.100
2.856
1.902
3.945
6.699
3.402
1.873
2.157
2.274
1.567
2.743
0.925
0.484
0.387
1.735
6.653
3.882
4.216
3.171
11.738
3.162
1.998
10.847
8.740
6.989
2.558
3.128
5.835
2.452
1.950
1.891
3.141
0.523
0.834
5.869
4.998
13.286
5.309
2.505
5.818
5.059
4.914
18.035
4.755
7.837
10.146
14.482
7.360
3.435
1.397
2.398
2.439
1.059
1.142
2.753
1.589
2.466
1.953
8.299
14.127
22.257
7.627
5.928
8.221
6.720
9.370
11.226
1.579
4.264
1.691
0.638
4.366
6.138
0.743
8.847
3.743
3.118
1.887
2.182
10.693
5.859
1.570
25.173
18.265
10.797
10.072
8.429
3.137
1.575
1.675
1.745
1.152
2.793
5.568
2.389
0.551
1.191
4.260
7.784
11.052
1.101
7.905
9.842
17.116
7.171
26.686
9.697
2.680
4.216
4.560
3.073
1.662
3.360
0.857
3.102
4.312
3.427
2.864
4.868
4.555
7.078
10.791
4.504
6.108
7.539
9.087
7.564
7.958
3.945
2.232
4.926
1.370
1.034
1.697
1.695
4.983
4.605
1.988
3.975
11.700
15.494
8.689
3.395
10.397
2.101
3.411
10.557
5.210
5.090
5.938
6.531
10.709
1.222
2.717
8.058
4.018
2.296
3.888
3.788
3.024
7.901
3.417
2.392
3.920
7.770
1.719
7.674
3.300
2.494
2.586
5.756
3.931
2.693
1.802
4.899
10.180
1.591
1.149
1.821
7.890
4.891
1.540
3.650
7.421
6.866
5.037
1.207
3.049
3.687
1.861
8.789
1.870
1.273
1.550
3.133
13.845
3.903
4.949
10.148
2.970
5.186
2.681
1.473
3.498
1.413
1.286
1.464
1.939
2.127
4.040
1.726
1.713
1.759
0.919
1.946
7.711
12.267
3.392
2.127
3.489
1.035
1.354
2.560
2.240
2.205
3.236
1.848
2.973
12.934
2.237
3.310
0.741
3.103
0.313
9.798
4.783
21.720
3.544
3.919
14.731
2.284
2.175
2.273
2.512
0.718
1.913
0.887
1.563
0.539
1.110
2.155
3.434
2.269
0.855
6.085
1.829
8.537
3.602
2.493
3.203
2.431
1.046
4.051
3.445
2.919
1.146
0.630
1.515
1.519
1.331
0.826
0.564
1.070
0.153
3.645
6.473
20.883
14.669
11.936
4.171
3.343
4.620
7.403
1.237
1.723
1.748
0.724
1.053
0.515
0.583
0.502
0.645
0.228
0.093
3.823
5.530
6.994
12.619
13.795
11.181
1.393
1.236
2.363
1.351
1.156
0.584
3.458
0.897
1.918
0.746
0.400
0.270
0.309
0.376
2.637
4.614
12.856
9.599
6.822
5.025
4.619
4.495
1.605
2.230
1.114
3.150
1.256
1.174
0.572
0.416
0.253
0.423
0.387
0.299
1.479
5.170
5.113
17.798
7.886
13.775
2.989
3.855
6.670
3.452
5.259
1.853
0.703
2.819
3.722
0.513
0.676
1.398
0.998
0.240
1.150
1.633
3.662
10.890
13.300
12.849
6.168
4.978
3.919
1.148
2.097
1.604
1.597
1.414
2.486
1.873
0.866
0.121
0.613
1.644
0.998
1.626
4.065
1.924
3.737
11.058
4.712
2.713
1.976
1.834
3.085
0.715
0.633
1.963
2.433
1.543
0.559
0.476
0.342
0.368

SCALARS Pressure double
LOOKUP_TABLE default
23.684
26.042
26.948
27.453
27.944
28.285
28.499
28.657
28.814
28.898
28.936
28.961
28.969
28.935
28.846
28.656
28.399
27.884
25.989
21.606
26.024
26.762
27.175
27.596
28.034
28.329
28.499
28.702
28.839
28.892
28.936
28.971
28.980
28.956
28.885
28.713
28.462
28.192
27.269
25.993
26.981
27.135
27.409
27.690
28.148
28.422
28.572
28.728
28.836
28.903
28.957
28.988
28.996
28.979
28.941
28.803
28.575
28.401
28.108
27.510
27.427
27.516
27.698
28.021
28.374
28.519
28.603
28.719
28.862
28.934
28.977
29.007
29.017
29.019
28.992
28.943
28.772
28.569
28.530
28.350
27.769
27.824
27.987
28.270
28.488
28.586
28.639
28.810
28.928
28.959
28.997
29.032
29.049
29.072
29.074
29.056
28.993
28.814
28.723
28.702
28.058
28.197
28.351
28.515
28.609
28.649
28.772
28.905
28.946
28.981
29.024
29.059
29.082
29.121
29.144
29.141
29.122
29.027
28.925
28.924
28.391
28.508
28.560
28.620
28.694
28.765
28.862
28.913
28.965
29.016
29.054
29.087
29.128
29.164
29.191
29.210
29.217
29.198
29.135
29.161
28.579
28.608
28.640
28.709
28.779
28.838
28.883
28.925
28.997
29.050
29.099
29.138
29.174
29.203
29.239
29.267
29.282
29.292
29.287
29.278
28.674
28.679
28.708
28.766
28.816
28.870
28.908
28.959
29.044
29.102
29.144
29.183
29.209
29.252
29.293
29.318
29.334
29.337
29.357
29.359
28.703
28.712
28.741
28.797
28.849
28.895
28.929
29.006
29.092
29.138
29.170
29.212
29.272
29.322
29.353
29.377
29.377
29.398
29.427
29.434
28.716
28.720
28.741
28.792
28.835
28.887
28.947
29.020
29.109
29.163
29.217
29.281
29.345
29.384
29.412
29.429
29.440
29.465
29.495
29.502
28.703
28.711
28.714
28.757
28.815
28.859
28.943
29.045
29.124
29.184
29.258
29.322
29.380
29.424
29.441
29.464
29.487
29.519
29.535
29.574
28.665
28.683
28.687
28.718
28.780
28.828
28.903
29.020
29.107
29.172
29.264
29.339
29.407
29.452
29.487
29.505
29.517
29.534
29.547
29.583
28.624
28.626
28.635
28.651
28.704
28.782
28.866
28.992
29.082
29.159
29.234
29.322
29.415
29.464
29.493
29.507
29.512
29.510
29.523
29.574
28.541
28.543
28.571
28.585
28.618
28.694
28.827
28.950
29.030
29.131
29.232
29.308
29.379
29.432
29.455
29.458
29.424
29.358
29.278
29.212
28.418
28.448
28.495
28.537
28.581
28.627
28.749
28.892
29.003
29.092
29.193
29.281
29.331
29.359
29.363
29.337
29.213
28.934
28.622
28.435
28.208
28.291
28.391
28.454
28.526
28.596
28.699
28.804
28.931
29.039
29.140
29.212
29.271
29.261
29.243
29.144
28.787
28.241
27.836
27.669
27.681
28.036
28.252
28.385
28.471
28.546
28.656
28.789
28.892
29.002
29.088
29.162
29.204
29.165
29.106
28.916
28.405
27.765
27.025
26.215
26.235
27.390
28.013
28.325
28.443
28.529
28.625
28.748
28.858
28.990
29.087
29.148
29.166
29.121
29.032
28.859
28.502
27.313
25.617
24.388
22.978
26.466
27.653
28.156
28.431
28.532
28.614
28.733
28.863
28.992
29.072
29.142
29.156
29.087
29.001
28.823
28.257
26.896
24.773
21.212

