# vtk DataFile Version 2.0
Unstructured Grid
ASCII
DATASET UNSTRUCTURED_GRID

POINTS 882 double
0.000 0.000 0.000
5.000 0.000 0.000
10.000 0.000 0.000
15.000 0.000 0.000
20.000 0.000 0.000
25.000 0.000 0.000
30.000 0.000 0.000
35.000 0.000 0.000
40.000 0.000 0.000
45.000 0.000 0.000
50.000 0.000 0.000
55.000 0.000 0.000
60.000 0.000 0.000
65.000 0.000 0.000
70.000 0.000 0.000
75.000 0.000 0.000
80.000 0.000 0.000
85.000 0.000 0.000
90.000 0.000 0.000
95.000 0.000 0.000
100.000 0.000 0.000
0.000 5.000 0.000
5.000 5.000 0.000
10.000 5.000 0.000
15.000 5.000 0.000
20.000 5.000 0.000
25.000 5.000 0.000
30.000 5.000 0.000
35.000 5.000 0.000
40.000 5.000 0.000
45.000 5.000 0.000
50.000 5.000 0.000
55.000 5.000 0.000
60.000 5.000 0.000
65.000 5.000 0.000
70.000 5.000 0.000
75.000 5.000 0.000
80.000 5.000 0.000
85.000 5.000 0.000
90.000 5.000 0.000
95.000 5.000 0.000
100.000 5.000 0.000
0.000 10.000 0.000
5.000 10.000 0.000
10.000 10.000 0.000
15.000 10.000 0.000
20.000 10.000 0.000
25.000 10.000 0.000
30.000 10.000 0.000
35.000 10.000 0.000
40.000 10.000 0.000
45.000 10.000 0.000
50.000 10.000 0.000
55.000 10.000 0.000
60.000 10.000 0.000
65.000 10.000 0.000
70.000 10.000 0.000
75.000 10.000 0.000
80.000 10.000 0.000
85.000 10.000 0.000
90.000 10.000 0.000
95.000 10.000 0.000
100.000 10.000 0.000
0.000 15.000 0.000
5.000 15.000 0.000
10.000 15.000 0.000
15.000 15.000 0.000
20.000 15.000 0.000
25.000 15.000 0.000
30.000 15.000 0.000
35.000 15.000 0.000
40.000 15.000 0.000
45.000 15.000 0.000
50.000 15.000 0.000
55.000 15.000 0.000
60.000 15.000 0.000
65.000 15.000 0.000
70.000 15.000 0.000
75.000 15.000 0.000
80.000 15.000 0.000
85.000 15.000 0.000
90.000 15.000 0.000
95.000 15.000 0.000
100.000 15.000 0.000
0.000 20.000 0.000
5.000 20.000 0.000
10.000 20.000 0.000
15.000 20.000 0.000
20.000 20.000 0.000
25.000 20.000 0.000
30.000 20.000 0.000
35.000 20.000 0.000
40.000 20.000 0.000
45.000 20.000 0.000
50.000 20.000 0.000
55.000 20.000 0.000
60.000 20.000 0.000
65.000 20.000 0.000
70.000 20.000 0.000
75.000 20.000 0.000
80.000 20.000 0.000
85.000 20.000 0.000
90.000 20.000 0.000
95.000 20.000 0.000
100.000 20.000 0.000
0.000 25.000 0.000
5.000 25.000 0.000
10.000 25.000 0.000
15.000 25.000 0.000
20.000 25.000 0.000
25.000 25.000 0.000
30.000 25.000 0.000
35.000 25.000 0.000
40.000 25.000 0.000
45.000 25.000 0.000
50.000 25.000 0.000
55.000 25.000 0.000
60.000 25.000 0.000
65.000 25.000 0.000
70.000 25.000 0.000
75.000 25.000 0.000
80.000 25.000 0.000
85.000 25.000 0.000
90.000 25.000 0.000
95.000 25.000 0.000
100.000 25.000 0.000
0.000 30.000 0.000
5.000 30.000 0.000
10.000 30.000 0.000
15.000 30.000 0.000
20.000 30.000 0.000
25.000 30.000 0.000
30.000 30.000 0.000
35.000 30.000 0.000
40.000 30.000 0.000
45.000 30.000 0.000
50.000 30.000 0.000
55.000 30.000 0.000
60.000 30.000 0.000
65.000 30.000 0.000
70.000 30.000 0.000
75.000 30.000 0.000
80.000 30.000 0.000
85.000 30.000 0.000
90.000 30.000 0.000
95.000 30.000 0.000
100.000 30.000 0.000
0.000 35.000 0.000
5.000 35.000 0.000
10.000 35.000 0.000
15.000 35.000 0.000
20.000 35.000 0.000
25.000 35.000 0.000
30.000 35.000 0.000
35.000 35.000 0.000
40.000 35.000 0.000
45.000 35.000 0.000
50.000 35.000 0.000
55.000 35.000 0.000
60.000 35.000 0.000
65.000 35.000 0.000
70.000 35.000 0.000
75.000 35.000 0.000
80.000 35.000 0.000
85.000 35.000 0.000
90.000 35.000 0.000
95.000 35.000 0.000
100.000 35.000 0.000
0.000 40.000 0.000
5.000 40.000 0.000
10.000 40.000 0.000
15.000 40.000 0.000
20.000 40.000 0.000
25.000 40.000 0.000
30.000 40.000 0.000
35.000 40.000 0.000
40.000 40.000 0.000
45.000 40.000 0.000
50.000 40.000 0.000
55.000 40.000 0.000
60.000 40.000 0.000
65.000 40.000 0.000
70.000 40.000 0.000
75.000 40.000 0.000
80.000 40.000 0.000
85.000 40.000 0.000
90.000 40.000 0.000
95.000 40.000 0.000
100.000 40.000 0.000
0.000 45.000 0.000
5.000 45.000 0.000
10.000 45.000 0.000
15.000 45.000 0.000
20.000 45.000 0.000
25.000 45.000 0.000
30.000 45.000 0.000
35.000 45.000 0.000
40.000 45.000 0.000
45.000 45.000 0.000
50.000 45.000 0.000
55.000 45.000 0.000
60.000 45.000 0.000
65.000 45.000 0.000
70.000 45.000 0.000
75.000 45.000 0.000
80.000 45.000 0.000
85.000 45.000 0.000
90.000 45.000 0.000
95.000 45.000 0.000
100.000 45.000 0.000
0.000 50.000 0.000
5.000 50.000 0.000
10.000 50.000 0.000
15.000 50.000 0.000
20.000 50.000 0.000
25.000 50.000 0.000
30.000 50.000 0.000
35.000 50.000 0.000
40.000 50.000 0.000
45.000 50.000 0.000
50.000 50.000 0.000
55.000 50.000 0.000
60.000 50.000 0.000
65.000 50.000 0.000
70.000 50.000 0.000
75.000 50.000 0.000
80.000 50.000 0.000
85.000 50.000 0.000
90.000 50.000 0.000
95.000 50.000 0.000
100.000 50.000 0.000
0.000 55.000 0.000
5.000 55.000 0.000
10.000 55.000 0.000
15.000 55.000 0.000
20.000 55.000 0.000
25.000 55.000 0.000
30.000 55.000 0.000
35.000 55.000 0.000
40.000 55.000 0.000
45.000 55.000 0.000
50.000 55.000 0.000
55.000 55.000 0.000
60.000 55.000 0.000
65.000 55.000 0.000
70.000 55.000 0.000
75.000 55.000 0.000
80.000 55.000 0.000
85.000 55.000 0.000
90.000 55.000 0.000
95.000 55.000 0.000
100.000 55.000 0.000
0.000 60.000 0.000
5.000 60.000 0.000
10.000 60.000 0.000
15.000 60.000 0.000
20.000 60.000 0.000
25.000 60.000 0.000
30.000 60.000 0.000
35.000 60.000 0.000
40.000 60.000 0.000
45.000 60.000 0.000
50.000 60.000 0.000
55.000 60.000 0.000
60.000 60.000 0.000
65.000 60.000 0.000
70.000 60.000 0.000
75.000 60.000 0.000
80.000 60.000 0.000
85.000 60.000 0.000
90.000 60.000 0.000
95.000 60.000 0.000
100.000 60.000 0.000
0.000 65.000 0.000
5.000 65.000 0.000
10.000 65.000 0.000
15.000 65.000 0.000
20.000 65.000 0.000
25.000 65.000 0.000
30.000 65.000 0.000
35.000 65.000 0.000
40.000 65.000 0.000
45.000 65.000 0.000
50.000 65.000 0.000
55.000 65.000 0.000
60.000 65.000 0.000
65.000 65.000 0.000
70.000 65.000 0.000
75.000 65.000 0.000
80.000 65.000 0.000
85.000 65.000 0.000
90.000 65.000 0.000
95.000 65.000 0.000
100.000 65.000 0.000
0.000 70.000 0.000
5.000 70.000 0.000
10.000 70.000 0.000
15.000 70.000 0.000
20.000 70.000 0.000
25.000 70.000 0.000
30.000 70.000 0.000
35.000 70.000 0.000
40.000 70.000 0.000
45.000 70.000 0.000
50.000 70.000 0.000
55.000 70.000 0.000
60.000 70.000 0.000
65.000 70.000 0.000
70.000 70.000 0.000
75.000 70.000 0.000
80.000 70.000 0.000
85.000 70.000 0.000
90.000 70.000 0.000
95.000 70.000 0.000
100.000 70.000 0.000
0.000 75.000 0.000
5.000 75.000 0.000
10.000 75.000 0.000
15.000 75.000 0.000
20.000 75.000 0.000
25.000 75.000 0.000
30.000 75.000 0.000
35.000 75.000 0.000
40.000 75.000 0.000
45.000 75.000 0.000
50.000 75.000 0.000
55.000 75.000 0.000
60.000 75.000 0.000
65.000 75.000 0.000
70.000 75.000 0.000
75.000 75.000 0.000
80.000 75.000 0.000
85.000 75.000 0.000
90.000 75.000 0.000
95.000 75.000 0.000
100.000 75.000 0.000
0.000 80.000 0.000
5.000 80.000 0.000
10.000 80.000 0.000
15.000 80.000 0.000
20.000 80.000 0.000
25.000 80.000 0.000
30.000 80.000 0.000
35.000 80.000 0.000
40.000 80.000 0.000
45.000 80.000 0.000
50.000 80.000 0.000
55.000 80.000 0.000
60.000 80.000 0.000
65.000 80.000 0.000
70.000 80.000 0.000
75.000 80.000 0.000
80.000 80.000 0.000
85.000 80.000 0.000
90.000 80.000 0.000
95.000 80.000 0.000
100.000 80.000 0.000
0.000 85.000 0.000
5.000 85.000 0.000
10.000 85.000 0.000
15.000 85.000 0.000
20.000 85.000 0.000
25.000 85.000 0.000
30.000 85.000 0.000
35.000 85.000 0.000
40.000 85.000 0.000
45.000 85.000 0.000
50.000 85.000 0.000
55.000 85.000 0.000
60.000 85.000 0.000
65.000 85.000 0.000
70.000 85.000 0.000
75.000 85.000 0.000
80.000 85.000 0.000
85.000 85.000 0.000
90.000 85.000 0.000
95.000 85.000 0.000
100.000 85.000 0.000
0.000 90.000 0.000
5.000 90.000 0.000
10.000 90.000 0.000
15.000 90.000 0.000
20.000 90.000 0.000
25.000 90.000 0.000
30.000 90.000 0.000
35.000 90.000 0.000
40.000 90.000 0.000
45.000 90.000 0.000
50.000 90.000 0.000
55.000 90.000 0.000
60.000 90.000 0.000
65.000 90.000 0.000
70.000 90.000 0.000
75.000 90.000 0.000
80.000 90.000 0.000
85.000 90.000 0.000
90.000 90.000 0.000
95.000 90.000 0.000
100.000 90.000 0.000
0.000 95.000 0.000
5.000 95.000 0.000
10.000 95.000 0.000
15.000 95.000 0.000
20.000 95.000 0.000
25.000 95.000 0.000
30.000 95.000 0.000
35.000 95.000 0.000
40.000 95.000 0.000
45.000 95.000 0.000
50.000 95.000 0.000
55.000 95.000 0.000
60.000 95.000 0.000
65.000 95.000 0.000
70.000 95.000 0.000
75.000 95.000 0.000
80.000 95.000 0.000
85.000 95.000 0.000
90.000 95.000 0.000
95.000 95.000 0.000
100.000 95.000 0.000
0.000 100.000 0.000
5.000 100.000 0.000
10.000 100.000 0.000
15.000 100.000 0.000
20.000 100.000 0.000
25.000 100.000 0.000
30.000 100.000 0.000
35.000 100.000 0.000
40.000 100.000 0.000
45.000 100.000 0.000
50.000 100.000 0.000
55.000 100.000 0.000
60.000 100.000 0.000
65.000 100.000 0.000
70.000 100.000 0.000
75.000 100.000 0.000
80.000 100.000 0.000
85.000 100.000 0.000
90.000 100.000 0.000
95.000 100.000 0.000
100.000 100.000 0.000
0.000 0.000 5.000
5.000 0.000 5.000
10.000 0.000 5.000
15.000 0.000 5.000
20.000 0.000 5.000
25.000 0.000 5.000
30.000 0.000 5.000
35.000 0.000 5.000
40.000 0.000 5.000
45.000 0.000 5.000
50.000 0.000 5.000
55.000 0.000 5.000
60.000 0.000 5.000
65.000 0.000 5.000
70.000 0.000 5.000
75.000 0.000 5.000
80.000 0.000 5.000
85.000 0.000 5.000
90.000 0.000 5.000
95.000 0.000 5.000
100.000 0.000 5.000
0.000 5.000 5.000
5.000 5.000 5.000
10.000 5.000 5.000
15.000 5.000 5.000
20.000 5.000 5.000
25.000 5.000 5.000
30.000 5.000 5.000
35.000 5.000 5.000
40.000 5.000 5.000
45.000 5.000 5.000
50.000 5.000 5.000
55.000 5.000 5.000
60.000 5.000 5.000
65.000 5.000 5.000
70.000 5.000 5.000
75.000 5.000 5.000
80.000 5.000 5.000
85.000 5.000 5.000
90.000 5.000 5.000
95.000 5.000 5.000
100.000 5.000 5.000
0.000 10.000 5.000
5.000 10.000 5.000
10.000 10.000 5.000
15.000 10.000 5.000
20.000 10.000 5.000
25.000 10.000 5.000
30.000 10.000 5.000
35.000 10.000 5.000
40.000 10.000 5.000
45.000 10.000 5.000
50.000 10.000 5.000
55.000 10.000 5.000
60.000 10.000 5.000
65.000 10.000 5.000
70.000 10.000 5.000
75.000 10.000 5.000
[...]
CELL_DATA 400
SCALARS Permeability_mD double
LOOKUP_TABLE default
0.892
1.604
7.138
6.845
1.579
2.325
1.374
2.958
1.621
1.553
6.699
1.958
0.389
0.729
0.477
1.567
0.881
0.240
0.290
0.284
1.663
2.214
3.882
4.569
1.207
2.055
7.532
5.247
3.962
3.698
7.716
4.711
1.299
1.631
2.452
0.719
0.510
0.387
0.237
0.247
1.083
0.467
1.171
3.906
4.534
2.104
2.246
18.015
7.034
2.354
17.338
5.008
14.482
5.512
1.247
2.629
0.909
0.177
1.059
0.717
0.425
1.589
2.466
0.998
1.929
4.624
10.655
1.251
6.292
7.383
5.771
19.458
11.226
9.794
5.165
1.691
0.995
0.865
0.910
0.395
1.437
1.333
3.540
2.105
2.182
5.291
3.286
1.570
25.173
5.580
8.736
6.142
8.429
3.137
3.107
2.080
1.216
3.386
0.778
1.268
0.802
1.635
0.972
4.260
3.053
1.218
1.101
4.530
8.949
17.116
7.737
6.834
9.697
4.609
2.314
0.892
1.457
1.357
0.287
1.435
1.561
1.083
2.049
3.523
1.108
1.184
7.190
12.387
4.504
7.025
9.961
3.485
6.967
5.292
1.100
0.901
2.373
2.101
2.072
0.574
5.277
3.601
1.197
1.274
3.975
1.271
8.514
9.564
6.216
7.070
3.313
3.411
2.931
3.267
3.491
3.192
2.427
10.709
2.120
4.499
3.345
5.015
2.070
4.275
1.573
1.162
2.048
3.307
2.619
7.522
7.770
3.724
7.674
12.800
3.086
3.937
5.615
1.966
2.415
2.114
2.259
1.954
5.954
2.290
3.940
7.246
2.249
3.635
9.068
7.421
6.866
2.946
5.029
1.681
3.687
1.861
1.566
3.137
0.387
2.955
6.222
13.845
4.765
4.949
4.357
7.607
4.271
2.690
1.473
5.739
6.176
2.988
2.484
2.968
1.480
3.585
10.599
1.768
1.759
2.435
2.902
6.215
12.267
10.793
4.008
14.302
7.177
4.899
6.272
6.527
1.652
1.276
1.848
2.341
1.142
2.199
2.120
1.270
1.415
1.055
4.260
3.055
16.128
52.196
19.178
11.255
26.358
1.896
2.792
4.892
5.011
1.884
0.868
1.536
1.483
2.017
1.774
1.807
1.084
1.134
4.169
4.270
15.315
16.893
22.308
8.054
11.468
5.255
6.890
2.915
2.408
4.750
0.968
1.080
2.653
1.203
2.369
0.835
0.833
0.563
10.013
10.471
20.883
24.255
11.181
10.016
5.435
9.892
9.034
5.911
1.495
3.848
5.011
3.731
1.369
0.583
0.372
1.065
1.037
0.640
8.777
33.101
12.071
14.503
6.104
8.498
2.029
9.247
14.461
7.030
3.111
6.074
4.536
3.598
0.886
0.786
0.523
0.346
0.491
0.319
4.961
15.749
22.567
7.567
8.052
2.483
9.593
4.623
2.790
4.721
4.460
2.065
1.676
0.835
0.581
1.575
0.353
0.268
0.543
0.424
3.818
3.586
24.652
2.605
13.654
8.247
3.857
5.999
6.670
3.452
2.108
3.727
1.189
1.268
2.533
2.914
1.301
0.499
0.228
0.200
4.860
2.669
7.106
10.890
3.090
2.358
4.013
4.978
5.410
1.980
2.097
1.725
1.122
1.414
2.141
1.811
0.437
0.565
0.223
0.078
3.852
3.873
12.124
3.498
3.094
1.283
14.988
6.190
12.847
1.237
0.741
3.333
2.030
6.816
2.433
1.826
0.444
0.507
0.506
0.121

SCALARS Pressure double
LOOKUP_TABLE default
22.289
26.733
27.465
27.718
27.993
28.291
28.690
29.022
29.229
29.366
29.407
29.423
29.418
29.375
29.300
29.125
28.888
28.450
27.503
20.952
26.403
27.096
27.592
27.849
28.056
28.332
28.730
29.029
29.256
29.378
29.410
29.425
29.426
29.398
29.335
29.209
29.009
28.632
28.009
26.685
27.091
27.503
27.809
28.007
28.180
28.525
28.833
29.069
29.295
29.383
29.407
29.425
29.431
29.423
29.400
29.331
29.149
28.848
28.606
28.330
27.854
27.918
28.085
28.240
28.454
28.696
28.876
29.159
29.342
29.382
29.411
29.432
29.440
29.440
29.434
29.420
29.370
29.213
29.073
29.053
28.374
28.329
28.372
28.511
28.669
28.813
29.021
29.257
29.356
29.381
29.413
29.442
29.458
29.470
29.484
29.501
29.497
29.470
29.400
29.320
28.526
28.574
28.624
28.712
28.794
28.913
29.108
29.280
29.352
29.387
29.422
29.457
29.476
29.497
29.527
29.548
29.556
29.558
29.539
29.521
28.679
28.714
28.765
28.796
28.882
29.017
29.138
29.254
29.349
29.400
29.439
29.468
29.490
29.521
29.552
29.576
29.589
29.601
29.605
29.623
28.748
28.768
28.803
28.832
28.899
29.027
29.142
29.249
29.354
29.417
29.451
29.480
29.516
29.550
29.587
29.607
29.624
29.623
29.658
29.679
28.755
28.752
28.789
28.818
28.856
28.984
29.145
29.291
29.370
29.420
29.462
29.497
29.530
29.565
29.604
29.631
29.653
29.669
29.705
29.711
28.710
28.717
28.743
28.780
28.799
28.922
29.083
29.265
29.380
29.423
29.465
29.504
29.535
29.582
29.621
29.649
29.672
29.708
29.730
29.738
28.658
28.684
28.689
28.722
28.753
28.873
29.025
29.193
29.341
29.423
29.469
29.511
29.550
29.596
29.627
29.659
29.680
29.733
29.741
29.744
28.588
28.605
28.627
28.651
28.672
28.767
28.958
29.159
29.279
29.382
29.463
29.512
29.563
29.605
29.637
29.667
29.682
29.701
29.720
29.709
28.414
28.432
28.498
28.541
28.589
28.655
28.767
28.983
29.171
29.295
29.411
29.515
29.573
29.614
29.637
29.659
29.661
29.635
29.625
29.610
28.228
28.257
28.308
28.366
28.445
28.533
28.654
28.823
29.005
29.174
29.330
29.483
29.560
29.605
29.619
29.602
29.580
29.507
29.444
29.453
28.097
28.146
28.192
28.237
28.312
28.432
28.586
28.737
28.844
29.032
29.205
29.400
29.525
29.594
29.582
29.527
29.433
29.327
29.203
29.105
27.892
27.968
28.109
28.165
28.221
28.360
28.503
28.667
28.807
28.946
29.145
29.281
29.403
29.453
29.478
29.395
29.207
29.003
28.778
28.568
27.568
27.674
27.894
28.065
28.141
28.277
28.444
28.608
28.755
28.887
29.067
29.213
29.314
29.343
29.311
29.187
28.877
28.518
28.206
27.976
26.943
27.300
27.608
27.880
28.061
28.185
28.340
28.543
28.733
28.837
29.013
29.169
29.245
29.257
29.193
28.955
28.452
27.889
27.304
26.821
26.175
26.723
27.366
27.695
27.962
28.172
28.298
28.441
28.661
28.856
29.002
29.132
29.197
29.184
29.080
28.740
28.155
27.369
26.261
24.740
23.970
26.127
27.049
27.591
27.896
28.117
28.289
28.487
28.679
28.846
28.977
29.099
29.174
29.131
29.010
28.692
28.191
27.038
24.575
21.193

